
#(C) 2020 by FIZ Karlsruhe - Leibniz Institute for Information Infrastructure.  All rights reserved.
data_68876-ICSD
_database_code_ICSD 68876
_audit_creation_date 1992-01-20
_chemical_name_common 'Lanthanum strontium neodymium dicopper oxide'
_chemical_formula_structural '(La.5 Sr.5)2 Nd Cu2 O6'
_chemical_formula_sum 'Cu2 La1 Nd1 O6 Sr1'
_chemical_name_structure_type SrLa2Cu2O6
_exptl_crystal_density_diffrn 6.72
_citation_title

;
Structure and oxygen stoichiometry in Ln2-xSr1+xCu2O6-y (Ln=La, Nd, Sm) phases
;
loop_
_citation_id
_citation_journal_full
_citation_year
_citation_journal_volume
_citation_page_first
_citation_page_last
_citation_journal_id_ASTM
primary 'Journal of Solid State Chemistry' 1990 85 88 99 JSSCBI
loop_
_citation_author_citation_id
_citation_author_name
primary 'Grasmeder, J.R.'
primary 'Weller, M.T.'
_cell_length_a 3.7521(1)
_cell_length_b 3.7521(1)
_cell_length_c 13.1570(6)
_cell_angle_alpha 90.
_cell_angle_beta 90.
_cell_angle_gamma 90.
_cell_volume 185.23
_cell_formula_units_Z 2
_space_group_name_H-M_alt 'I 4/m m m'
_space_group_IT_number 139
loop_
_space_group_symop_operation_xyz
1 'x, y, z'
2 '-y, x, z'
3 '-x, -y, z'
4 'y, -x, z'
5 '-x, y, z'
6 '-y, -x, z'
7 'x, -y, z'
8 'y, x, z'
9 '-x, -y, -z'
10 'y, -x, -z'
11 'x, y, -z'
12 '-y, x, -z'
13 'x, -y, -z'
14 'y, x, -z'
15 '-x, y, -z'
16 '-y, -x, -z'
17 'x+1/2, y+1/2, z+1/2'
18 '-y+1/2, x+1/2, z+1/2'
19 '-x+1/2, -y+1/2, z+1/2'
20 'y+1/2, -x+1/2, z+1/2'
21 '-x+1/2, y+1/2, z+1/2'
22 '-y+1/2, -x+1/2, z+1/2'
23 'x+1/2, -y+1/2, z+1/2'
24 'y+1/2, x+1/2, z+1/2'
25 '-x+1/2, -y+1/2, -z+1/2'
26 'y+1/2, -x+1/2, -z+1/2'
27 'x+1/2, y+1/2, -z+1/2'
28 '-y+1/2, x+1/2, -z+1/2'
29 'x+1/2, -y+1/2, -z+1/2'
30 'y+1/2, x+1/2, -z+1/2'
31 '-x+1/2, y+1/2, -z+1/2'
32 '-y+1/2, -x+1/2, -z+1/2'
loop_
_atom_type_symbol
_atom_type_oxidation_number
Nd3+ 3
La3+ 3
Sr2+ 2
Cu2+ 2
O2- -2
loop_
_atom_site_label
_atom_site_type_symbol
_atom_site_symmetry_multiplicity
_atom_site_Wyckoff_symbol
_atom_site_fract_x
_atom_site_fract_y
_atom_site_fract_z
_atom_site_B_iso_or_equiv
_atom_site_occupancy
Nd1 Nd3+ 4 e 0 0 0.3600(5) . 0.2
La1 La3+ 4 e 0 0 0.3600(5) . 0.665
Sr1 Sr2+ 4 e 0 0 0.3600(5) . 0.135
Cu1 Cu2+ 2 a 0 0 0.0000 . 1.
O1 O2- 4 c 0 0.5 0.0000 . 1.
O2 O2- 4 e 0 0 0.1821(1) . 1.
loop_
_atom_site_aniso_label
_atom_site_aniso_type_symbol
_atom_site_aniso_B_11
_atom_site_aniso_B_22
_atom_site_aniso_B_33
_atom_site_aniso_B_12
_atom_site_aniso_B_13
_atom_site_aniso_B_23
Nd1 Nd3+ 0.78(6) 0.78(6) 1.28(12) 0 0 0
La1 La3+ 1.32(5) 1.32(5) 1.35(9) 0 0 0
Sr1 Sr2+ 1.32(5) 1.32(5) 1.35(9) 0 0 0
Cu1 Cu2+ 0.60(4) 0.60(4) 1.69(9) 0 0 0
O1 O2- 0.57(5) 1.18(6) 2.40(9) 0 0 0
O2 O2- 3.88(7) 3.88(7) 1.22(13) 0 0 0
#End of TTdata_68876-ICSD